# Simple LAMMPS data file with bonds

10 atoms
9 bonds
4 angles
2 atom types
1 bond types
1 angle types

0.0 10.0 xlo xhi
0.0 10.0 ylo yhi
0.0 10.0 zlo zhi

Masses

1 1.0
2 1.0

Atoms

1 1 1.0 1.0 0.0
2 1 2.0 1.0 0.0
3 1 3.0 1.0 0.0
4 1 4.0 1.0 0.0
5 1 5.0 1.0 0.0
6 1 6.0 1.0 0.0
7 1 7.0 1.0 0.0
8 1 8.0 1.0 0.0
9 1 9.0 1.0 0.0
10 1 10.0 1.0 0.0

Bonds

1 1 1 2
2 1 2 3
3 1 3 4
4 1 4 5
5 1 5 6
6 1 6 7
7 1 7 8
8 1 8 9
9 1 9 10

Angles

1 1 1 2 3
2 1 2 3 4
3 1 3 4 5
4 1 4 5 6




